TITLE = "bjt"
VARIABLES = "x", "y", "Acceptors", "AtContactNode", "ContactSurfaceArea", "Donors", "LogNetDoping", "NSurfaceNormal_x", "NSurfaceNormal_y", "NetDoping", "NodeVolume", "SurfaceArea", "coordinate_index", "node_index", "EdgeCouple", "EdgeInverseLength", "EdgeLength", "edge_index", "unitx", "unity", "ElementEdgeCouple", "ElementNodeVolume"
ZONE T="bjt" NODES=14773, ELEMENTS=28926, DATAPACKING=BLOCK, ZONETYPE=FETRIANGLE, VARLOCATION=([21,22]=CELLCENTERED)
0 0.0005 0.001 0.00175 0.00225 0.00275 0 0.00275 2.45644e-05 4.91287e-05 7.36931e-05 9.82575e-05 0.000122822 0.000147386 0.000171951 0.000196515 0.000221079 0.000245644 0.000270208 0.000294772 0.000318374 0.000331474 0.000339113 0.000343518 0.000347448 0.000351379 0.000355309 0.000359239 0.00036317 0.000367185 0.000373204 0.000381063 0.000397008 0.000421572 0.000446137 0.000470701 0.000492139 0.000508065 0.000516129 0.000524194 0.000532258 0.000540323 0.000548387 0.000556452 0.000564516 0.000572581 0.000580645 0.00058871 0.000596774 0.000604839 0.000612903 0.000620968 0.000629032 0.000637097 0.000645161 0.000653226 0.00066129 0.000669355 0.000677419 0.000685484 0.000693548 0.000701613 0.000709677 0.000717742 0.000725806 0.000733871 0.000741935 0.00075 0.000758065 0.000766129 0.000774194 0.000782258 0.000790323 0.000798387 0.000806452 0.000814516 0.000822581 0.000830645 0.00083871 0.000846774 0.000854839 0.000862903 0.000870968 0.000879032 0.000887097 0.000895161 0.000903226 0.00091129 0.000919355 0.000927419 0.000935484 0.000943548 0.000951613 0.000959677 0.000967742 0.000975806 0.000983871 0.000991935 0.00100804 0.00103088 0.00105598 0.00108108 0.00110618 0.00113128 0.00115638 0.00118148 0.00120658 0.00123168 0.00125678 0.00128188 0.00130698 0.00133208 0.00135718 0.00138228 0.00140739 0.00143249 0.00145759 0.00148269 0.00150779 0.00153289 0.00155799 0.00158309 0.00160819 0.00163329 0.00165839 0.00168349 0.00170859 0.00172353 0.00172956 0.00173225 0.00173426 0.00173666 0.00174197 0.00175806 0.00176613 0.00177419 0.00178226 0.00179032 0.00179839 0.00180645 0.00181452 0.00182258 0.00183065 0.00183871 0.00184677 0.00185484 0.0018629 0.00187097 0.00187903 0.0018871 0.00189516 0.00190323 0.00191129 0.00191935 0.00192742 0.00193548 0.00194355 0.00195161 0.00195968 0.00196774 0.00197581 0.00198387 0.00199194 0.002 0.00200806 0.00201613 0.00202419 0.00203226 0.00204032 0.00204839 0.00205645 0.00206452 0.00207258 0.00208065 0.00208871 0.00209677 0.00210484 0.0021129 0.00212097 0.00212903 0.0021371 0.00214516 0.00215323 0.00216129 0.00216935 0.00217742 0.00218548 0.00219355 0.00220161 0.00220968 0.00221774 0.00222581 0.00223387 0.00224194 0.00225819 0.00226392 0.00226673 0.00226877 0.00227449 0.00229689 0.00232249 0.00234787 0.0023646 0.00237396 0.00238182 0.00238663 0.00239072 0.00239482 0.00239891 0.00240301 0.00240754 0.00241523 0.00242465 0.0024429 0.00246849 0.00249408 0.00251967 0.00254526 0.00257086 0.00259645 0.00262204 0.00264763 0.00267322 0.00269882 0.00272441 0.00275 0.00275 0.00275 0.00275 0.00275 0.00275 0.00275 0.00275 0.00275 0.00275 0.00275 0.00275 0.00275 0.00275 0.00275 0.00275 0.00275 0.00275 0.00275 0.00275 0.00275 0.00275 0.00275 0.00275 0.00275 7.99419e-06 1.59884e-05 2.39826e-05 3.19767e-05 3.99709e-05 4.79651e-05 5.59593e-05 6.39535e-05 7.19477e-05 7.99419e-05 8.7936e-05 9.59302e-05 0.000103924 0.000111919 0.000119913 0.000127907 0.000135901 0.000143895 0.00015189 0.000159884 0.000167878 0.000175872 0.000183866 0.00019186 0.000199855 0.000207849 0.000215843 0.000223837 0.000231831 0.000239826 0.00024782 0.000255814 0.000263808 0.000271802 0.000279797 0.000287791 0.000295785 0.000303779 0.000311773 0.000319767 0.000327762 0.000335756 0.00034375 0.000351744 0.000359738 0.000367733 0.000375727 0.000383721 0.000391715 0.000399709 0.000407703 0.000415698 0.000423692 0.000431686 0.00043968 0.000447674 0.000455669 0.000463663 0.000471657 0.000479651 0.000487645 0.00049564 0.000503634 0.000511628 0.000519622 0.000527616 0.00053561 0.000543605 0.000551599 0.000559593 0.000567587 0.000575581 0.000583576 0.00059157 0.000599564 0.000607558 0.000615552 0.000623547 0.000631541 0.000639535 0.000647529 0.000655523 0.000663517 0.000671512 0.000679506 0.0006875 0.000695494 0.000703488 0.000711483 0.000719477 0.000727471 0.000735465 0.000743459 0.000751453 0.000759448 0.000767442 0.000775436 0.00078343 0.000791424 0.000799419 0.000807413 0.000815407 0.000823401 0.000831395 0.00083939 0.000847384 0.000855378 0.000863372 0.000871366 0.00087936 0.000887355 0.000895349 0.000903343 0.000911337 0.000919331 0.000927326 0.00093532 0.000943314 0.000951308 0.000959302 0.000967297 0.000975291 0.000983285 0.000991279 0.000999273 0.00100727 0.00101526 0.00102326 0.00103125 0.00103924 0.00104724 0.00105523 0.00106323 0.00107122 0.00107922 0.00108721 0.0010952 0.0011032 0.00111119 0.00111919 0.00112718 0.00113517 0.00114317 0.00115116 0.00115916 0.00116715 0.00117515 0.00118314 0.00119113 0.00119913 0.00120712 0.00121512 0.00122311 0.0012311 0.0012391 0.00124709 0.00125509 0.00126308 0.00127108 0.00127907 0.00128706 0.00129506 0.00130305 0.00131105 0.00131904 0.00132703 0.00133503 0.00134302 0.00135102 0.00135901 0.00136701 0.001375 0.00138299 0.00139099 0.00139898 0.00140698 0.00141497 0.00142297 0.00143096 0.00143895 0.00144695 0.00145494 0.00146294 0.00147093 0.00147892 0.00148692 0.00149491 0.00150291 0.0015109 0.0015189 0.00152689 0.00153488 0.00154288 0.00155087 0.00155887 0.00156686 0.00157485 0.00158285 0.00159084 0.00159884 0.00160683 0.00161483 0.00162282 0.00163081 0.00163881 0.0016468 0.0016548 0.00166279 0.00167078 0.00167878 0.00168677 0.00169477 0.00170276 0.00171076 0.00171875 0.00172674 0.00173474 0.00174273 0.00175073 0.00175872 0.00176672 0.00177471 0.0017827 0.0017907 0.00179869 0.00180669 0.00181468 0.00182267 0.00183067 0.00183866 0.00184666 0.00185465 0.00186265 0.00187064 0.00187863 0.00188663 0.00189462 0.00190262 0.00191061 0.0019186 0.0019266 0.00193459 0.00194259 0.00195058 0.00195858 0.00196657 0.00197456 0.00198256 0.00199055 0.00199855 0.00200654 0.00201453 0.00202253 0.00203052 0.00203852 0.00204651 0.00205451 0.0020625 0.00207049 0.00207849 0.00208648 0.00209448 0.00210247 0.00211047 0.00211846 0.00212645 0.00213445 0.00214244 0.00215044 0.00215843 0.00216642 0.00217442 0.00218241 0.00219041 0.0021984 0.0022064 0.00221439 0.00222238 0.00223038 0.00223837 0.00224637 0.00225436 0.00226235 0.00227035 0.00227834 0.00228634 0.00229433 0.00230233 0.00231032 0.00231831 0.00232631 0.0023343 0.0023423 0.00235029 0.00235828 0.00236628 0.00237427 0.00238227 0.00239026 0.00239826 0.00240625 0.00241424 0.00242224 0.00243023 0.00243823 0.00244622 0.00245422 0.00246221 0.0024702 0.0024782 0.00248619 0.00249419 0.00250218 0.00251017 0.00251817 0.00252616 0.00253416 0.00254215 0.00255015 0.00255814 0.00256613 0.00257413 0.00258212 0.00259012 0.00259811 0.0026061 0.0026141 0.00262209 0.00263009 0.00263808 0.00264608 0.00265407 0.00266206 0.00267006 0.00267805 0.00268605 0.00269404 0.00270203 0.00271003 0.00271802 0.00272602 0.00273401 0.00274201 0 0 0 0 0 0 0 0 0 0 0 0 0 0 0 0 0 0 0 0 0 0 0 0 0 0.00173474 0.00226615 0.000355096 0.0010161 0.000764187 0.00198464 0.00139281 0.00251407 0.00261576 0.00056212 0.00239726 0.0012118 0.000178248 0.0015649 0.00173333 0.0018748 0.00173333 0.00181415 0.00173321 0.00226772 0.00211652 0.00199798 0.002183 0.00206927 0.00192693 0.00213113 0.000890719 0.000891105 0.00100444 0.000778877 0.000925356 0.000657772 0.00185952 0.000484145 0.000562091 0.000353418 0.000349371 0.000644542 0.00238566 0.00226806 0.00226836 0.000764325 0.000694604 0.000837811 0.00239237 0.00109129 0.00098738 0.00117995 0.00239721 0.00133156 0.0014521 0.00153061 0.00126168 0.00138539 0.0009153 0.00168242 0.00177215 0.00161839 0.00030013 0.000396052 0.000219923 0.00266761 0.00232661 0.00201029 0.0019313 0.00208377 0.00225052 0.00217692 0.00232138 0.001048 0.000202632 0.000465073 0.000333147 0.00249984 0.00243407 0.00256588 0.000711329 0.00170587 0.00180123 0.00185775 0.000262372 0.00157733 0.00164299 0.00043352 0.0005638 0.00250829 0.000618455 0.0011238 0.000345159 0.00184515 0.0022422 0.00177761 0.00173378 0.00199019 0.000105478 0.000157685 0.000754902 0.00226792 0.00146928 0.00199803 0.00166403 0.000628444 0.00219914 0.00213957 6.93131e-05 0.000838636 0.00144931 0.00149378 0.000267938 0.00115761 0.00129968 0.00123439 0.00122183 0.00137442 0.00222271 0.000524183 0.00152423 0.0019376 0.000971553 5.15271e-05 0.00204726 0.00121013 0.000419178 0.00263386 0.00109148 0.002524 0.00245889 0.00159842 0.00183262 0.00190662 0.00224484 0.00020481 0.00175521 0.00255267 0.00112145 0.000775963 0.00184111 0.000985939 0.00176638 0.00177176 0.00186918 0.00216365 0.00215327 0.00139551 0.000366801 0.00268096 0.000817366 0.000886608 0.00102581 0.00213167 0.00151078 0.00096584 0.000430944 0.00190612 0.00190633 0.00186653 0.00192067 0.00189323 0.0017931 0.00237148 0.00165565 0.00158106 0.00175239 0.00174905 0.00173802 0.00175324 0.000662743 0.000287785 0.0010704 0.00225078 0.000297055 0.00133194 0.00128778 0.00136164 0.00174921 0.00194362 0.00198192 0.00239299 0.00181182 0.000266354 0.00168988 0.00130093 0.0015433 0.000497526 0.000567891 0.000236775 0.00115374 0.00213969 0.000389436 0.00189924 0.000718939 0.00220884 0.00223651 0.00223976 0.00230634 0.00195961 0.00196926 0.0019322 0.00229245 0.00231194 0.00237946 0.00263671 0.00137705 0.00131931 0.0014359 0.000112887 8.70831e-05 0.000714509 0.00270401 0.0002588 0.00231394 0.00223303 0.00161907 0.00166621 0.000103513 0.000387845 0.000355878 0.00112383 0.00110795 0.00114985 0.002052 0.00194488 0.00151345 0.00161987 0.00220789 0.00221452 0.00222273 0.00223175 0.00218823 0.000816573 0.00148215 0.000307333 0.00132523 0.00245798 0.00182838 0.00195126 0.000370051 0.000372362 0.00106007 0.00102531 0.00195022 0.00108051 0.00110295 0.00108729 0.00112887 0.00154443 0.00154369 0.000769717 0.00235548 0.000349402 0.000369608 0.00214441 0.00213343 0.00216824 0.00212961 0.00218505 0.00218996 0.00128796 0.0023767 0.00141878 0.00239646 0.000836796 0.000852824 0.000864586 0.00134807 0.00195716 0.00192662 0.000390894 0.000407875 0.000340303 0.000376003 0.00159172 0.000894109 0.00105345 0.00103316 0.00104384 0.00189818 0.0016914 0.00261987 0.00134855 0.000744626 0.000700024 0.000672957 0.000607274 0.000639845 0.000608832 0.00061801 0.00226841 0.00157708 0.00243575 0.00246966 0.00173529 0.00272028 0.00087209 0.000897373 0.000637704 0.00173311 0.0026388 0.00162913 0.00161324 0.00218742 0.000801888 0.000827348 2.94141e-05 0.00192334 0.00190923 0.00187455 0.00188821 0.00171306 0.00150855 0.00149022 0.00245834 0.000545345 0.000623504 0.00175286 0.00203731 0.00149237 0.00145491 0.00147841 0.00164285 0.00074393 0.00180251 0.00225703 0.000571471 0.000350578 0.000876392 0.00081995 0.000811162 0.00188574 0.00140216 0.00137487 0.00135407 0.00132641 0.00131999 0.00139807 0.00142441 0.00144869 0.00142733 0.000882202 0.000942981 0.000925298 0.000917282 0.000861728 0.00203922 0.00217666 0.000481101 0.00161108 0.00173712 0.0014846 0.000813999 0.000795333 0.00126408 0.00243301 0.00219553 0.000960591 0.00170666 0.00167056 0.00165005 0.00164937 0.000673891 0.000803954 0.00241073 0.00123832 0.00127652 0.00119839 0.00119604 0.00126498 0.00104239 0.000741536 0.000696829 0.000695544 0.000719528 0.00072805 0.0006753 0.00065987 0.00065186 0.0021845 0.00194024 0.000117643 0.00113286 0.00155897 0.0015608 0.00152858 0.00152663 0.00154411 0.0015131 0.00165197 0.00195488 0.000907832 0.000887617 0.000936369 0.00199491 0.00204241 0.00201678 0.00208263 0.00197479 0.00198272 0.00203227 0.00205675 0.00206371 0.00208793 0.00203589 0.0021024 0.00210339 0.00210219 0.000372544 0.00168209 0.00169865 0.00169191 0.00171517 0.00182361 0.00182058 0.00185086 0.00186222 0.0018386 0.000920447 0.000227325 0.000174373 0.000130656 0.000201375 0.00020295 0.000270408 0.000878712 0.00174798 0.00270326 0.00244664 0.00246666 0.000634761 0.00062106 0.000395034 4.54867e-05 8.58159e-05 0.0010379 0.00170561 0.00169999 0.00168278 0.00166274 0.00171304 0.00171987 0.00174835 0.00177354 0.00173208 0.00173557 0.00178638 0.00175256 0.00178729 0.00126843 0.00226856 0.00225182 0.000668502 0.000181236 0.00173227 0.00236674 0.0019769 0.00197844 0.00226557 0.00186275 0.00187507 0.00185029 0.00186293 0.00116583 0.00247258 0.00249724 0.00153937 0.00147875 0.000931163 0.000597145 0.000637696 0.000637354 0.000197246 0.00104772 0.00256733 0.000715699 0.00103938 0.000947721 0.000502239 0.000555355 0.000585172 0.000579503 0.000456627 0.000601655 0.000527651 0.000490848 0.000528569 0.000523472 0.00054337 0.000564617 0.000512961 0.000572603 0.000466508 0.000477087 0.000486342 0.000541667 0.000592661 0.000594668 0.00135926 0.00136567 0.00136828 0.00138318 0.00139012 0.00108778 0.00101797 0.00109771 0.00109339 0.00111356 0.00112598 0.00114227 0.00114454 0.00134182 0.00133828 0.00135323 0.0022154 0.00145732 0.0010817 0.00178015 0.00208618 0.00217332 0.00237645 0.00159453 0.00220055 0.00258419 0.000361521 0.00180787 0.00175338 0.00173725 0.00222854 0.000681423 0.000564504 0.000544664 0.00102296 0.000987165 0.000961499 0.00100649 0.000971929 0.00094405 0.000975002 0.000994752 0.000958542 0.000948957 0.000949576 0.00100933 0.000974564 0.000820504 0.00181257 0.00240866 0.000292523 0.000323809 0.000325039 0.000307476 0.00208495 0.00272731 0.00106501 0.0010679 0.00150837 0.00149618 0.00166749 0.00165927 0.00171127 0.00164112 0.000423358 0.00205298 0.00226314 0.0022969 0.00172225 0.00242486 3.66463e-05 0.00220273 0.00130577 0.0017056 0.000846279 0.000832808 0.000858933 0.00176434 0.00175802 0.0013773 0.00141154 0.00142242 0.0021776 0.000585609 0.00028274 0.00206921 0.00135418 0.00140771 0.00141487 0.00143237 0.00144053 0.00143431 0.00141743 0.0015142 0.00178406 0.00130824 0.000354949 0.000356699 0.000612092 0.00254485 0.000738041 0.000622174 0.00232732 0.00225843 0.000929809 0.00108414 0.000238854 0.00199923 0.00102067 0.00196128 0.00199818 0.000649413 0.00190684 0.000593956 0.000548506 0.000516026 0.00159402 0.0015638 0.00222144 0.00038627 0.000357742 0.000358825 0.000342112 0.000369181 0.00196507 0.00196602 0.00124793 0.00226851 0.00221895 0.00224075 0.00226908 0.00225436 0.00231252 0.00235061 0.00229395 0.00234131 0.00232942 0.00237688 0.00225898 0.00228826 0.00215757 0.00215579 0.000364941 0.000784623 0.000764692 0.00171827 0.00267725 0.000583932 0.00191605 0.000480555 0.00172445 0.00215988 0.00185353 0.00267559 0.00240056 0.000457045 0.000425024 0.000407522 0.000432631 0.000442421 0.000439394 0.000416713 0.00221171 0.00208013 0.00177548 0.00164121 0.00159413 0.00186103 0.00145954 0.00146933 0.00146788 0.00148665 0.000830389 7.00195e-05 0.000777265 0.00188444 0.00174713 0.001676 0.00170573 0.00173567 0.00170811 0.00219172 0.00152041 0.000734099 0.000305182 0.000598994 0.000580205 0.00189529 0.00266013 2.84192e-05 0.00109746 0.00121365 0.00222628 0.00237713 0.00179783 0.00200702 0.00202798 0.00200719 0.00202944 0.0020422 0.00206536 0.00208302 0.00205559 0.00205322 0.00204124 0.00201818 0.00207376 0.00207796 0.000540674 0.00053828 0.000520733 0.00111943 0.00180244 0.00180392 0.00195293 0.0023585 0.00143799 0.000730905 0.000900294 0.000903106 0.000889919 0.000876314 0.00160007 0.00157854 0.00158911 0.00160949 0.00162739 0.00159362 0.00161406 0.00160178 0.00162007 0.000385821 0.000710813 0.000730407 0.000736119 0.000750951 0.001075 0.00153591 0.00155242 0.000816998 0.00241683 0.0011628 0.00114171 0.00117631 0.00115623 0.00116508 0.00117622 0.00119313 0.00121523 0.00122735 0.00122821 0.00124964 0.00122754 0.00121152 0.00125327 0.00122652 0.000795327 0.000790718 0.00176909 0.00132845 0.00222194 0.00220448 0.000372552 0.00146393 0.000710539 0.000705588 0.000691157 0.000682811 0.000722563 0.000685852 0.00164111 0.00165521 0.00227867 0.000850944 0.00165032 0.000629769 0.000701135 0.000385544 0.000324209 0.00116564 0.00229217 0.000270475 0.000420044 0.00156332 0.00166061 0.000851076 0.000863188 0.00174318 0.00224695 0.00225267 0.00223943 0.0022432 0.00223437 0.000911677 0.00217721 0.000323938 0.000141756 0.00238583 0.00238737 0.000385143 0.00140408 0.00142487 0.00208485 0.000951426 0.00103669 0.00106777 0.00106188 0.00100381 0.00168014 0.0016977 0.00169689 0.000602797 0.000581718 0.000561777 0.000584018 0.0016297 0.00176812 0.00176367 0.00065011 0.000625898 0.000626473 0.000675169 0.00135366 0.00216853 0.000749813 0.00077332 0.00273597 0.0013905 0.00140432 0.000662914 0.00177832 0.00129382 0.00130651 0.00131482 0.00133544 0.00198579 0.00198534 0.00195597 0.00101981 0.00104435 0.0010116 0.00172444 0.00199334 0.0025872 0.000839676 0.000667407 0.00174369 0.000752452 0.000486315 0.00137652 0.00139214 0.002404 0.00235756 0.00237855 0.00238052 0.0024121 0.00194424 0.0020221 0.00211078 0.00115763 0.0016398 0.00110928 0.00254812 0.00252521 0.00258529 0.00262198 0.00265503 0.00264619 0.00263119 0.00264647 0.00260817 0.00259797 0.00258244 0.00259548 0.00193373 0.00192687 0.00244324 0.00191664 0.00191725 0.00223265 0.001058 0.000367731 0.000361764 0.000367489 0.000331306 0.000370207 0.0003561 0.000345025 0.000379334 0.000383895 0.00040667 0.000422363 0.000996118 0.000985896 0.000983364 0.000997529 0.00149795 0.0023637 0.00237467 0.00252376 0.000938993 0.000956422 0.000785385 0.000777587 0.000790127 0.00079722 0.000809068 0.000795375 0.00152703 0.00175246 0.00168956 0.00268825 0.00238858 0.000572915 0.00240418 0.00241018 0.00240123 0.0024108 0.00239046 0.00239726 0.00240954 0.00239737 0.00239832 0.00237929 0.0023841 0.00237812 0.00238944 0.000358797 0.00193008 8.03681e-05 0.000354574 0.00136301 0.00161303 6.37065e-05 0.000415894 0.00174377 0.000842751 0.000670752 0.00198492 0.00122196 0.000351525 0.00225831 0.00232617 0.000360285 0.00118899 0.00191517 0.000134885 0.00117715 0.000512628 0.000446178 0.000452557 0.00043554 0.00174265 0.00174304 0.000515396 0.000855359 0.000719663 0.00194756 0.00195828 0.00111705 0.00142409 0.00142376 0.00251765 0.00201729 0.00200809 0.00157392 0.002431 0.00242262 0.00242971 0.00189403 0.00268034 0.000641393 0.00197641 0.000535404 0.0005223 0.000505662 0.000529922 0.000511056 0.000546757 0.00100798 0.000604141 0.0016678 0.00192098 0.00193546 0.00191437 0.000174982 0.000235067 0.00101668 0.000750935 0.00209357 0.00182882 0.000302639 0.00238822 0.00234976 0.00235961 0.00234117 0.000966247 0.00111695 0.00111805 0.000969264 0.00118122 0.00197555 0.00111829 0.000717454 0.000691407 0.000670546 0.000655616 0.00154904 0.00229327 0.00231015 0.0022839 0.00227822 0.00229701 0.0022757 0.0022628 0.00225186 0.000889116 0.00235312 0.00215135 0.00128341 0.00128455 0.00185073 0.000432273 0.000917481 0.00156315 0.00116418 0.0011565 0.00113762 0.00116139 0.00104555 0.00225904 0.00225504 0.00223485 0.00227651 0.000488787 0.000494833 0.000464747 0.00047785 0.000467682 0.00076105 0.000771718 0.00175785 0.000341395 0.000339105 0.00105144 0.00223918 0.00257495 0.00197535 0.00195621 0.00198924 0.00200504 0.00145855 0.00210827 0.00209695 0.000530756 0.000848567 0.0016282 0.000188361 0.000166597 0.00191308 0.00153165 0.00129041 0.00127793 0.00126338 0.00124947 0.00129066 0.0020873 0.00188419 0.000550529 0.00252616 0.00210833 0.00210177 0.00213463 0.00212 0.00211507 0.00236902 0.00271711 0.001687 0.00110523 0.000770717 0.00151816 0.00150791 0.00143322 0.00237889 0.0017385 0.00200178 0.0014962 0.000650679 0.000704614 6.0628e-05 0.00157155 0.00153909 0.000804409 0.00193692 0.00194028 0.00172289 0.00172368 0.0011819 0.00118775 0.0017922 0.00180379 0.00146877 0.00146928 0.00209536 0.000823416 0.00148019 0.00164286 0.00174543 0.000926459 0.00237354 0.0007548 0.000402573 0.000601764 0.00141583 0.000453153 0.0012021 0.00120694 0.00108814 0.000930206 0.00113041 0.000732037 0.00131191 0.00206485 0.00172508 0.00171524 0.00182687 0.00203059 0.00161383 0.00162544 0.000869999 0.00135905 0.00033965 0.0020691 0.00231873 0.00233043 0.0023241 0.00231993 0.000692142 0.000682495 0.00115123 1.76795e-05 0.00100451 0.00162765 0.000794822 0.0013513 0.00219095 0.00118683 0.00109014 0.0021163 0.00134458 0.00134699 0.00174348 0.00108903 0.000939823 0.000360092 0.0022242 0.001739 0.0017428 0.000592365 0.000601313 0.00111781 0.000636907 0.000541747 0.00232192 0.00229975 0.00234235 0.00200986 0.00222601 0.00140693 0.00215716 0.00107264 0.00145937 0.00147741 0.00148725 0.00148788 0.0014962 8.49628e-05 0.00105602 0.00210735 0.00212763 0.00248679 0.00213213 0.0021467 0.00213032 0.002121 0.000921352 0.00225149 0.00223099 0.00013885 0.00143208 0.000130641 0.0018396 0.00171012 0.00133529 0.001327 0.0013103 0.00131486 0.00129964 0.00238055 0.000880918 0.00086863 0.00129711 0.00233181 0.0023369 0.00232754 0.00231371 0.00117217 0.00178626 0.00233929 0.00195246 0.00194677 0.00258029 0.00230204 0.00248343 0.00250261 0.000246985 0.00216303 0.000396799 0.000439325 0.000478667 0.000500769 0.000493512 0.000454551 0.00033055 0.000339972 0.000344888 0.000340897 0.00033268 0.000344952 0.000351462 0.000816762 0.00107135 0.00107437 0.00108431 0.000451054 0.00113741 0.00216354 0.000462363 0.00143023 0.00123994 0.00221996 0.00240175 0.00239115 0.002387 0.00211178 0.00197325 0.0021425 0.000373449 0.00269546 0.00262255 0.000118823 0.00126673 0.00123711 0.00197425 0.000548947 0.00213696 0.00148085 0.000754971 0.000365243 0.00036796 0.00229958 0.0023061 0.00158042 0.0017607 0.00131787 0.00130692 0.000961357 0.00113407 0.000423257 0.000615035 0.000609769 0.00112295 0.00157244 0.0023539 0.00223358 0.00217975 0.0021706 0.00119157 0.00119992 0.0021094 0.00209527 0.00164987 0.00176608 0.00175661 0.00175527 0.00220583 0.000861512 0.000900535 0.0008747 0.000847661 0.00199219 0.00238688 0.00181197 0.00184972 0.00188127 0.00182453 0.00183048 0.000285714 0.000737568 0.00136908 0.00207728 0.000810071 0.000836315 0.000957262 0.000232997 0.00198904 0.00158729 0.00158211 0.000661262 0.00215989 0.00189909 0.00193077 0.00106248 0.000708633 0.000901757 0.00208922 0.00063987 0.00222188 0.00130486 0.00104634 0.00104384 0.0010343 0.000254573 0.000239232 0.00216811 0.0021968 0.00125066 0.00246617 0.00172887 0.00172739 0.000639352 0.000771839 8.10614e-05 5.46962e-05 0.000967316 2.78491e-05 0.00270041 0.000632322 0.000594444 0.00228856 0.000347086 0.00240383 0.00241289 0.00168859 0.000916033 0.000829814 0.00201916 0.00201711 0.000415712 0.000812234 0.00178795 0.00180628 0.0017921 0.000223683 0.00245205 0.00105166 0.00127714 0.00127548 0.00095042 0.000950397 0.000342659 0.00126162 0.00125985 0.000615214 0.00107702 0.000590957 0.00167147 0.00204699 0.00205129 0.000217398 0.00107548 0.000304278 0.00147949 0.00210493 0.00143914 0.00144987 0.00145079 0.00146022 0.00142203 0.00114666 0.000987844 0.00248544 0.00221252 0.00219804 0.0014165 0.000246989 0.000340516 0.00235814 0.00168207 0.00187613 0.00113208 0.0011236 0.00203763 0.000346019 0.00057796 0.00187843 0.00119837 0.00271548 0.00171369 0.00170656 0.00170898 0.00136715 0.00136624 0.00137528 0.00137501 0.00110543 0.000138601 0.00242441 0.00035295 0.00135914 0.000477144 0.00167542 0.00167159 0.00027708 0.00127004 0.00127252 0.00128119 0.00160059 0.00160738 0.00137855 5.32661e-05 0.00251089 0.00186965 0.00106002 0.000396706 0.000417404 0.00174419 0.00144226 0.00139633 0.000128983 0.000150725 0.000166678 0.000123696 0.000104265 0.00237487 0.00176663 0.00140133 0.00221112 0.000309267 0.00191299 0.00060888 0.00220605 0.00239146 0.000697146 0.000515381 0.000976587 0.000994681 0.000984741 0.00192468 0.000955635 0.000941494 0.00161894 0.00201257 6.34034e-05 0.0017238 0.00177018 0.00269399 0.00101003 0.0013338 0.00132385 0.00133486 0.000768636 0.00151833 0.00119612 0.00107594 3.61059e-05 0.00117523 0.00204346 0.00203323 0.00181964 0.00181545 0.00182148 0.0003926 0.00102864 0.00224557 0.00224844 0.00226383 0.00131861 0.000320907 0.000413095 0.00237702 0.000563114 0.000563178 0.00156706 0.00239569 0.0023827 0.00223111 0.000916473 0.000727313 0.00191993 0.00140105 0.0011878 0.00036147 0.000353399 0.00116618 0.00115486 0.00150646 0.00199967 0.00148181 0.00204413 0.000642064 0.00124469 0.00241546 0.00139063 0.00240097 0.000403696 0.00138305 0.000348063 0.00122115 0.00123345 0.00152428 0.00187347 0.00196715 0.00197534 0.00203787 0.00194251 0.00189458 0.00189706 0.00098018 0.00100402 0.0018053 0.00181576 0.000692396 0.000737743 0.00125607 0.00097015 0.00235353 0.00217603 0.000427969 0.000662704 0.00104113 0.00103161 0.000991283 0.000349953 0.00153556 0.00190995 0.0018294 0.0018098 0.00179523 0.00177736 4.3469e-05 0.00242273 0.00159348 0.00236423 0.00217563 0.00263088 0.000649007 0.00202208 0.00118823 0.00165335 0.00218484 0.00206116 0.00196959 0.00196981 0.00115262 0.00215258 0.000385534 0.00169875 0.00220098 0.00219476 0.00221111 0.00212311 0.000152972 0.000524539 0.000912506 0.000934451 0.000357271 0.00110084 0.000371692 0.0023809 0.00226106 0.000983562 0.00163867 0.000353182 0.000712763 0.00226119 0.00184513 0.000344724 0.000335326 0.00147711 0.00145968 0.000575703 0.00171657 0.00160922 0.00190506 0.00108438 0.00089514 0.000899583 0.00243294 0.000704514 0.00209361 0.000243185 0.00206801 0.00128208 0.00185914 0.00195765 0.00194569 0.00182151 0.00191245 0.00190731 0.00192749 0.00192281 0.00241163 0.000391663 0.00108067 0.00261332 0.00226674 0.000599326 0.000486807 0.000495668 0.00135162 0.000608748 0.00173201 0.00206698 0.00205684 0.00206795 0.00180912 0.00165925 0.000343901 0.000561894 0.000606545 0.0018676 0.00133806 0.00247621 0.000378609 0.00158889 0.00230217 0.00233858 0.000310041 0.000821081 0.000805396 0.00079174 0.00178015 0.00116814 0.0015023 0.000908693 0.00118632 0.0010287 0.00100364 0.00036876 0.00161987 0.000623173 0.00252354 0.00185208 0.00185316 0.00240453 0.000690824 0.00219348 0.00189804 0.00239454 0.000954013 0.00229173 0.000895015 0.00251963 0.00101586 0.00185465 0.000703817 0.000712161 0.00191377 0.00129179 0.0012947 0.00130653 0.00129908 0.00226171 0.00239295 0.00184606 0.0018397 0.00183169 0.00188476 0.00189028 0.00225965 0.0021245 0.0021232 0.00262792 0.00234076 0.00235738 0.0010035 4.4689e-05 0.00208284 0.0020963 0.0012288 0.000643456 0.00208216 4.37364e-05 0.00227583 0.00203298 0.00203778 0.00124955 0.00171223 0.000866158 0.00121076 0.00122514 0.00122249 0.001286 0.00200457 0.00199355 0.00198286 0.00197126 0.00229002 0.000216658 0.000742764 0.00035773 0.00236247 0.00177389 0.0021271 0.000962106 0.00221712 0.00222223 0.00223583 0.0016123 0.00026425 0.000886077 0.00179387 0.00179393 0.0014668 0.00091961 0.00188314 0.00107998 0.00106313 0.00194329 0.000505593 4.82721e-05 0.000782343 0.00229899 0.0022702 0.000496047 0.00139716 0.000873944 0.000881839 0.00134042 0.00210931 0.00183008 0.00209962 0.00160653 0.00177028 0.000439975 0.00129862 0.00145133 0.00183671 0.00216038 0.00215242 0.00136137 0.000313253 0.00136212 0.00134757 0.00176003 0.00177846 0.000513708 0.00196454 0.00268132 0.000154461 0.00207149 0.000464122 0.00205902 0.00266557 0.000776714 0.000758777 0.00230781 0.00109131 0.00226116 0.00226326 0.00239659 0.00239714 0.00239029 0.00238949 0.00240631 0.00241818 0.00149817 0.00150304 0.00036168 0.000522067 0.000521515 0.000552813 0.000544732 0.00139857 0.00120122 0.000376359 0.000344638 0.000333834 0.000357182 0.000508418 0.00123383 0.00181184 0.00257111 0.00256283 0.0025434 0.000202347 0.000183273 0.000208012 0.000737969 0.0011792 0.00235726 0.00165819 0.000528744 0.000528538 0.00116706 0.00166976 0.00226829 0.00145948 0.000397164 0.00194163 0.00053529 0.000535317 0.000625723 0.00119497 0.000555684 0.000557528 0.00189391 0.00189961 0.00179966 0.00162195 0.00230607 0.00231453 0.00229141 0.00228135 0.00226911 0.00228513 0.00184282 0.00207469 0.00068487 0.00125732 0.00126602 0.00127306 0.00159549 0.00177813 0.00195042 0.00195787 0.00143843 0.000665866 0.0011043 0.000993769 0.00215079 0.00198736 0.00198245 0.00198955 0.00159034 0.000586362 0.00155128 0.000930728 0.000914335 0.00094644 0.00226152 0.000238763 0.000978743 0.00178011 0.00128342 0.00141395 0.00120287 0.00216508 0.00159428 0.000589963 0.000777458 0.000776063 0.00078792 0.00152791 0.00155172 0.00153689 0.00241934 0.000368628 0.000362465 0.0010817 0.00236399 0.002314 0.000401281 0.000680273 0.00202433 0.00202906 0.000572104 0.00131759 0.00174478 0.0011939 0.000347515 0.00226753 0.000669625 9.56455e-05 0.000514974 0.00138773 0.000458007 0.00190602 0.00236724 0.00134177 0.00239683 0.00178267 0.000842029 0.000850146 0.00167501 0.00167589 0.000213662 0.00238131 0.000113767 0.000683572 0.00202608 0.0019992 0.00106216 0.00139531 0.000711404 0.00228233 0.00189682 0.00169002 0.001692 0.00217597 0.000821174 0.00205316 0.00158406 0.000374919 0.00105113 0.00237357 0.00239288 0.00153252 0.000333121 0.00211513 0.00211639 0.00226732 0.00227979 0.00060993 0.00220649 0.00220398 0.00112954 0.00225899 0.0015282 0.000453589 0.000578154 0.00163136 0.00046102 0.000458532 0.00047718 0.000467351 0.000452056 0.00130688 0.00248602 0.00154268 0.00124616 0.00125003 0.000883961 0.000881044 0.00226947 0.000136632 0.000770627 0.00216499 0.000570738 0.00202191 0.00202545 1.43391e-05 0.00201485 0.000704588 0.000703974 0.00179277 0.000628171 0.00127761 0.00226827 0.0022167 0.00223373 0.00222635 0.00156404 6.86164e-05 0.00212095 0.00119877 0.00209601 0.00268256 0.00266981 0.00221549 0.00220888 0.000866011 0.00188383 0.000621584 0.00272222 0.00100001 0.000408311 0.00124867 0.00171515 0.00237431 0.00138353 0.00138916 0.00138222 0.00138478 0.00169405 0.000583087 0.0008908 0.00226903 0.00221991 0.00109893 0.00173821 0.00174671 0.00110818 0.00180543 0.0021512 0.000481625 0.00195542 0.00202478 0.000736136 0.00175389 0.0021444 0.00213266 0.00177812 2.0865e-05 0.000473705 0.0016147 0.00163292 0.000337485 0.00123596 0.00245891 0.00243926 0.00123796 0.00183819 0.000665178 0.00203263 0.00270389 0.0023859 0.00157013 0.00238654 6.1553e-05 0.000858802 0.00104125 0.0021924 0.00221031 0.000633329 0.00185643 0.00186934 0.00176596 0.00201082 0.00157125 0.00151499 0.00112843 0.000411192 0.000928849 1.39562e-05 0.000910907 0.0018632 0.00184692 0.000333309 0.00227269 0.00135689 0.00174081 0.000952922 0.000963145 0.00197157 0.00107888 0.00109787 0.000666914 0.000682741 0.000794237 0.00120086 0.00120785 0.00121508 0.00122077 0.00123123 0.00122229 0.00124048 0.00218089 0.0013