TITLE = "bjt"
VARIABLES = "x", "y", "Acceptors", "AtContactNode", "DEG", "Donors", "EC", "EC:Potential", "EFN", "EFN:Potential", "EFP", "EFP:Potential", "EG", "EI", "EI:Potential", "EV", "EV:Potential", "IntrinsicCharge", "IntrinsicCharge:Potential", "IntrinsicElectrons", "IntrinsicElectrons:Potential", "IntrinsicHoles", "IntrinsicHoles:Potential", "LogNetDoping", "NC", "NIE", "NSurfaceNormal_x", "NSurfaceNormal_y", "NTOT", "NV", "NetDoping", "NodeVolume", "Potential", "PotentialIntrinsicCharge", "PotentialIntrinsicCharge:Potential", "Potential_prev", "SurfaceArea", "V_t", "basenodemodel", "basenodemodel:Potential", "collectornodemodel", "collectornodemodel:Potential", "contactcharge_node", "coordinate_index", "emitternodemodel", "emitternodemodel:Potential", "node_index", "DField", "DField:Potential@n0", "DField:Potential@n1", "EField", "EField:Potential@n0", "EField:Potential@n1", "EdgeCouple", "EdgeInverseLength", "EdgeLength", "Potential@n0", "Potential@n1", "V_t_edge", "edge_index", "unitx", "unity", "EField_x", "EField_y", "ElementEdgeCouple", "ElementNodeVolume", "Emag", "Enorm", "SA", "SurfaceArea@en0", "SurfaceArea@en1", "SurfaceArea@en2", "clen", "eindex", "node_index@en0", "node_index@en1", "node_index@en2"
ZONE T="bjt" NODES=2975, ELEMENTS=5688, DATAPACKING=BLOCK, ZONETYPE=FETRIANGLE, VARLOCATION=([63,64,65,66,67,68,69,70,71,72,73,74,75,76,77]=CELLCENTERED)
0 0.0005 0.001 0.00175 0.00225 0.00275 0 0.00275 2.5e-05 5e-05 7.5e-05 0.0001 0.000125 0.00015 0.000175 0.0002 0.000225 0.00025 0.000275 0.0003 0.000325 0.00035 0.000375 0.0004 0.000425 0.00045 0.000475 0.000525 0.00055 0.000575 0.0006 0.000625 0.00065 0.000675 0.0007 0.000725 0.00075 0.000775 0.0008 0.000825 0.00085 0.000875 0.0009 0.000925 0.00095 0.000975 0.001025 0.00105 0.001075 0.0011 0.001125 0.00115 0.001175 0.0012 0.001225 0.00125 0.001275 0.0013 0.001325 0.00135 0.001375 0.0014 0.001425 0.00145 0.001475 0.0015 0.001525 0.00155 0.001575 0.0016 0.001625 0.00165 0.001675 0.0017 0.001725 0.001775 0.0018 0.001825 0.00185 0.001875 0.0019 0.001925 0.00195 0.001975 0.002 0.002025 0.00205 0.002075 0.0021 0.002125 0.00215 0.002175 0.0022 0.002225 0.002275 0.0023 0.002325 0.00235 0.002375 0.0024 0.002425 0.00245 0.002475 0.0025 0.002525 0.00255 0.002575 0.0026 0.002625 0.00265 0.002675 0.0027 0.002725 0.00275 0.00275 0.00275 0.00275 0.00275 0.00275 0.00275 0.00275 0.00275 0.00275 0.00275 0.00275 0.00275 0.00275 0.00275 0.00275 0.00275 0.00275 0.00275 2.5e-05 5e-05 7.5e-05 0.0001 0.000125 0.00015 0.000175 0.0002 0.000225 0.00025 0.000275 0.0003 0.000325 0.00035 0.000375 0.0004 0.000425 0.00045 0.000475 0.0005 0.000525 0.00055 0.000575 0.0006 0.000625 0.00065 0.000675 0.0007 0.000725 0.00075 0.000775 0.0008 0.000825 0.00085 0.000875 0.0009 0.000925 0.00095 0.000975 0.001 0.001025 0.00105 0.001075 0.0011 0.001125 0.00115 0.001175 0.0012 0.001225 0.00125 0.001275 0.0013 0.001325 0.00135 0.001375 0.0014 0.001425 0.00145 0.001475 0.0015 0.001525 0.00155 0.001575 0.0016 0.001625 0.00165 0.001675 0.0017 0.001725 0.00175 0.001775 0.0018 0.001825 0.00185 0.001875 0.0019 0.001925 0.00195 0.001975 0.002 0.002025 0.00205 0.002075 0.0021 0.002125 0.00215 0.002175 0.0022 0.002225 0.00225 0.002275 0.0023 0.002325 0.00235 0.002375 0.0024 0.002425 0.00245 0.002475 0.0025 0.002525 0.00255 0.002575 0.0026 0.002625 0.00265 0.002675 0.0027 0.002725 0 0 0 0 0 0 0 0 0 0 0 0 0 0 0 0 0 0 0 0.0024898 0.00135937 0.00108853 0.000259093 0.000537381 0.000807817 0.00203705 0.00176647 0.00226136 0.00156365 0.000948159 0.000948831 0.00190043 0.000673675 0.00190021 0.000401379 0.00122301 0.00122657 0.000671033 0.000399121 0.00148505 0.00216325 0.00236648 0.0016415 0.00260158 0.00015095 0.000151134 0.00259923 0.00238431 0.00213849 0.00168216 0.00144383 0.00107338 0.000830362 0.00107078 0.000278143 0.000830076 0.000554504 0.00134514 0.000518467 0.00178108 0.000278196 0.00202232 0.00201729 0.00248031 0.00133218 0.00179226 0.00225061 0.00249303 0.00226305 0.000107736 0.00263813 0.00165731 0.00158406 0.00146716 0.00216109 0.00238614 0.0015631 0.00126262 0.000358115 0.000715305 0.00194127 0.000908851 0.00115815 0.0007395 0.000740678 0.00115859 0.000468023 0.000610025 0.00156537 0.00142633 0.00099395 0.00184784 0.000624059 0.00044984 0.00117327 0.00210151 8.49916e-05 8.49916e-05 0.00266531 0.0026633 0.00169714 0.000484604 0.00114094 0.000991809 0.000912927 0.000631442 0.000354117 0.00126934 0.00185902 0.000440748 0.00194486 0.000357116 0.000994979 0.000908445 0.000761706 0.000761474 0.00223643 0.000202015 0.000204022 0.00194263 0.00233021 0.00240708 0.00140781 0.00125307 0.00150688 0.00208093 0.00208904 0.00255377 0.00171616 0.00256411 0.000184796 0.00218655 0.00243692 0.00113635 0.000589265 0.00256658 0.000222952 0.00252563 0.00186337 0.00217569 0.00231804 0.00242286 0.00231135 0.00267158 7.71548e-05 7.85424e-05 0.00267172 0.000599625 0.0018274 0.00102564 0.00206774 0.00131413 0.0017292 0.00139532 0.00245249 0.00232942 0.00174848 0.00199418 0.00129571 0.000311487 0.000328653 0.00199054 0.000857395 0.00085896 0.00220863 0.00165158 0.00138603 0.00150041 0.00151211 0.00163169 0.000219454 0.000673767 0.00162838 0.00105089 0.00046977 0.00183033 0.0025067 0.00110135 0.000798848 0.00109785 0.000800021 0.000523837 0.00054954 0.000163058 0.00258235 0.00136836 0.00204065 0.00176368 0.000299164 0.00209944 0.00026527 0.0001448 0.0001448 0.00200321 0.00246386 0.00230088 0.00232966 0.00121391 0.000687828 0.000414096 0.00100983 0.000526591 0.00260938 0.00152673 0.00195595 0.00130648 0.000892509 0.00227146 0.000894829 0.00195318 0.000344407 0.00169526 0.000270239 0.00181063 0.0010818 0.000542848 0.0014512 0.00251075 0.00160077 0.00104107 0.000859486 0.000581527 0.000492693 0.00128048 0.00121865 0.000408092 0.000664244 0.00188894 0.000961049 0.00212382 0.00254371 0.0022405 0.00158532 0.00135398 0.00104161 0.00085839 0.00120256 0.0015555 0.00261789 0.00221627 0.00269425 5.9886e-05 0.00131334 0.0014419 0.00198634 0.00141515 0.00221786 0.00254709 0.00171058 0.00242923 0.00177372 0.00163511 0.00146215 0.00237752 0.00181447 0.000138202 0.00261384 0.00214382 0.00244432 0.00269792 4.82729e-05 4.98143e-05 0.00269394 0.000950767 0.000949389 0.000400997 0.00137918 0.000626076 0.00183319 0.0010169 0.00214133 0.00189725 0.000953992 0.00189651 0.000675117 0.000401458 0.0012217 0.00213442 0.00156159 0.000246971 0.00240057 0.00180408 0.00163294 0.00243669 0.00120782 0.000418563 0.000694269 0.00120606 0.000319145 0.000765581 0.000211628 0.00112615 0.000500642 0.00150064 0.00186316 0.000709829 0.000356343 0.000813775 0.000805033 0.00072339 0.000311055 0.00131231 0.00238578 0.0012929 0.000493797 0.00113969 0.000774284 0.000775117 0.00222386 0.0019359 0.000914044 0.000367148 4.99163e-05 4.99163e-05 0.00270101 0.00270155 0.00209182 0.00139844 0.00253486 0.00207392 0.000627165 0.000231465 0.00218826 0.00172774 0.00225728 0.00160091 0.000577153 0.00158295 0.00251512 0.00172981 0.0015334 0.00190783 0.000948723 0.000950927 0.000399385 0.00189949 0.00151947 0.00270056 4.88043e-05 0.00112949 0.00118322 0.00204998 0.00104011 0.00112076 0.000573093 0.00214394 0.00264846 0.0026432 0.000101159 9.72775e-05 0.000721966 0.000627399 0.00228841 0.00246163 0.00135675 0.0018057 0.00237285 0.00203917 0.00145127 0.0019919 0.00218589 0.0006341 0.000858401 0.00144588 0.000991276 0.00114498 0.000754367 0.0011432 0.000479336 0.000908998 0.00193884 0.000444043 0.00117836 0.00126608 0.000472406 0.0016762 0.00261033 0.000721757 0.000713335 0.00168855 0.000579496 0.0015338 0.000497 0.00236459 0.00226978 0.000680174 0.00011809 0.0026351 0.00165905 0.000753085 0.00213188 0.00211709 0.00190378 0.000268753 0.00235226 0.00234033 0.002297 0.00176762 0.00208063 0.00259226 0.00108617 0.00117207 0.000165356 0.00016557 0.00154045 0.000231395 0.00238563 0.00161259 0.000337887 0.00167431 0.00134649 0.00171715 0.000235835 0.000101304 0.000101304 0.00140356 0.00249146 0.00203249 0.00018455 0.000186705 0.00217124 0.00256706 0.00196221 0.000452107 0.00117605 0.00230773 0.00064843 0.00125195 0.0026517 0.00173102 0.00140733 0.00249126 0.00125904 0.00168889 0.000312268 0.00198095 0.00179048 0.00148401 0.002073 0.000763519 0.000584752 0.000869614 0.000592982 0.00169031 0.00148189 0.00231259 0.00242398 0.00124927 0.00100053 0.000899517 0.000451203 0.000320851 0.00185579 0.00103187 0.000868423 0.00126856 0.00225741 0.00100176 0.000898239 0.000179675 0.00181256 0.00149183 0.0025722 0.000359593 0.00204379 0.00265508 0.00247172 0.00247237 0.00251292 0.00197936 0.00252171 0.00135207 0.000193662 0.00241932 0.000247782 0.00143144 0.000229384 0.00222093 0.00128939 0.00202983 0.00260346 0.000146601 0.00147213 0.00103639 0.00194951 0.000428198 0.000250293 0.00131569 0.0020903 0.001305 4.01715e-05 4.01715e-05 0.00270891 0.00270958 0.00141496 0.00220478 0.00204188 0.00254529 0.000436614 0.000357668 0.00108747 0.00256629 0.00184693 0.00244666 0.000984234 0.00186862 0.000624377 0.00222146 0.00241355 0.00186729 0.00229575 3.82002e-05 0.00270816 0.000585655 0.000804588 0.000804032 0.000377917 0.00019688 0.00179485 0.000378849 0.00177116 0.00235527 0.002712 3.80426e-05 0.0010543 0.000324433 0.000314699 0.00246311 0.00233449 0.00218436 0.00240251 0.0025294 0.000642149 0.0018496 0.00100017 0.00175459 0.00152309 0.00229732 0.00221532 0.00183037 0.000123418 0.000123386 0.000647707 0.00124664 0.00136098 0.00160117 0.00265466 9.50747e-05 0.000545391 0.00136979 0.00160132 0.00149137 0.00228026 0.000305677 0.00199457 0.000856174 0.000854825 0.0019937 0.00132913 0.0023345 0.00171163 0.000516332 0.00218619 0.000977665 0.00126482 0.00156294 0.00187141 0.00103701 0.00241923 0.00210944 0.00025698 0.00118225 0.000717754 0.000444981 0.00053206 0.00109446 0.00166402 0.00207236 0.00160403 0.00263306 0.000117164 0.00107304 0.00082689 0.000550534 0.000522927 0.00164035 0.00138642 0.00200749 0.00196838 0.000504471 0.00104737 0.000841248 0.000881543 0.00175354 0.00223188 0.00236632 0.00107382 0.000827082 0.00172681 0.000832169 0.000557308 0.00206409 0.00148768 0.00165463 0.00154759 0.00173884 0.00217443 0.00137209 0.00258687 0.000654754 0.00250417 0.00176934 0.0016369 0.00141011 0.000287223 0.00083149 0.00106896 0.00205413 0.00161922 0.000611643 0.000662104 0.00134347 0.00167381 0.00182378 0.00169413 0.000363944 0.00201727 0.00153488 0.00112239 0.000500402 0.000117519 0.00263257 0.00178497 0.000187928 8.64788e-05 0.00123191 0.000773826 0.000774466 0.00144335 0.00228852 0.00262814 0.00107258 0.00210641 0.00233183 0.00146397 0.000286597 0.00070619 0.00257454 0.0011139 0.000513106 0.00078807 0.00111329 0.00212731 0.000478219 0.000275601 0.00239336 0.00152574 0.00146953 0.000984282 0.00226909 0.00271562 3.43801e-05 0.00201854 0.00128606 0.00159554 0.00183742 0.00123241 0.000391647 0.0011262 0.000575683 0.00119543 0.000426897 0.00176783 0.00218381 0.00111114 0.0005191 0.00192709 0.00131245 0.00248593 0.00117817 0.000919637 0.000890981 0.00202084 0.00165682 0.000263377 0.00216873 0.00195899 0.000192789 0.00121195 0.000414971 0.000656351 0.00190538 0.000944817 0.000835223 0.000148558 0.00234827 0.00265963 0.0018979 0.00260266 0.000731981 0.00267294 0.00193807 0.000216956 0.000916828 0.000789505 0.00224933 0.00245444 0.00240739 0.00256912 0.00162818 0.000181404 0.00211419 0.000542015 0.00205567 0.00146796 0.00153442 0.000668176 0.000140324 0.000140324 0.002132 0.00187742 0.00159543 0.00115758 0.000467845 0.000297181 0.00138009 0.00229135 0.00226427 0.00225022 0.000742856 0.00132697 0.00219101 0.00175001 0.00157474 0.00138568 0.00101884 0.00248697 0.00158754 0.00255607 0.00031316 0.0019628 0.00139974 0.00107127 0.00257696 0.00115837 0.00216693 0.00271714 3.30418e-05 0.000285055 0.00143585 0.000706062 0.00119435 0.000430864 0.000886998 0.00172937 0.00253874 0.00133487 0.000545654 0.000601611 0.0005581 0.000367982 0.000274822 0.000237177 0.000836249 0.00141439 0.000837137 0.00142694 0.00219486 0.000916688 0.000334025 0.00193331 0.00192624 0.00253775 0.000562682 0.00119051 0.00201708 0.00247908 0.00078886 0.00149742 0.00251037 0.00178103 0.000602221 0.00100234 0.00184419 0.00179117 0.00214429 0.00233232 0.00166971 0.000571528 0.000494866 0.00144927 0.000172598 0.000172513 0.000676428 0.0012202 0.000206163 0.000412283 0.00228856 0.00188994 0.00163125 0.000982097 0.0015837 0.000803788 0.000974277 0.000925723 0.000927817 0.000972183 0.000423784 0.00094083 0.000959557 0.000409553 0.0013253 0.00145918 0.00192982 0.000920145 7.52656e-05 7.52656e-05 0.000431763 0.000803462 0.00153709 0.00125775 0.00201639 0.000662107 0.0013238 0.00134777 0.00153604 0.00262621 0.000698988 0.0011167 0.00134102 0.00170245 0.00119058 0.000376473 0.000327899 0.000697867 0.000682768 0.00198599 0.0014846 0.000531805 0.00215599 0.000752054 0.00244988 0.00129294 0.00190744 0.00228304 0.000392365 0.000942487 0.00239728 0.00122071 0.00128524 0.00109428 0.00180318 0.00211779 0.00195858 0.00156432 0.00192373 0.00210009 0.000926366 0.00245772 0.00023933 0.00249051 0.00232317 0.00187133 0.00253749 0.00156607 0.00235476 0.00222022 0.00263262 0.00123601 0.000919745 0.00221797 0.00224617 0.000556211 0.000463828 0.00271951 3.07855e-05 0.000883194 0.00196556 0.000791445 0.00237663 0.00215753 0.00258369 0.000869618 0.00103042 0.000480847 0.00110006 0.00247185 0.000343064 0.00242977 0.00197155 0.00030282 0.00141588 0.00150966 0.00104806 0.00160923 0.00240876 0.00207739 3.35667e-05 3.35667e-05 0.00271846 0.00271888 0.00125303 0.000256509 0.00117038 0.000294805 0.00263221 0.00106327 0.0010313 0.000868697 0.00259222 0.00177929 0.0015605 0.00253393 0.00259406 0.00061518 0.000344486 0.00267715 0.000119561 0.000119564 0.0012811 0.00262052 0.000137277 0.00170158 0.00180062 0.00233532 0.00187522 0.00213201 0.00161443 0.00206494 0.000459208 0.000734248 0.00116482 0.00257165 0.000252191 0.00172942 0.000969353 0.00188203 0.00123448 8.06238e-05 7.61384e-05 7.62982e-05 0.00267395 0.00267618 0.00114699 0.00211479 0.00262809 0.000515859 0.00252396 0.000383463 0.00188207 0.00243551 0.0024385 0.00179703 0.00222693 0.00119858 0.0012155 0.00201776 0.0018306 0.00151085 0.00152042 0.000216544 0.00128257 0.00183706 0.00266981 0.00267437 8.23652e-05 8.18477e-05 0.000595527 0.00166454 0.000439522 0.00118606 0.00139166 0.00225726 0.000384964 0.000370382 0.000745814 0.000603764 0.00238703 0.00182192 0.00216257 0.00102125 0.000504466 0.00143614 0.00211938 0.000663785 0.002458 0.000587177 0.000959501 0.002151 0.00061936 0.00236072 0.00142347 0.000877198 0.0023611 0.000719335 0.000618226 0.00111812 0.000739912 0.00061023 0.00211353 0.000776063 0.00190935 0.00064752 0.00087076 0.000921674 0.000978667 0.00221524 2.78199e-05 0.00272401 0.000702643 0.00179249 0.00198304 0.00237913 0.00170487 0.0017219 0.00250745 0.00169626 0.000977779 0.0010306 0.000389659 0.000336069 0.0023045 0.00101793 0.00111513 0.00223294 2.69804e-05 2.76423e-05 0.00272267 0.00272368 0.00130319 0.000380628 0.000152985 0.00222186 0.000875856 0.00102125 0.000644245 7.8683e-05 7.8683e-05 0.00115097 0.00157515 0.000695588 0.00197567 0.00162587 0.00267943 0.000419646 0.00120375 0.00129073 0.00072702 0.00191287 0.00153743 0.000700981 0.000871634 0.00174832 0.00070174 0.00142369 0.000739589 0.000331215 0.00187298 0.00239649 0.00137606 0.00165549 0.000165252 0.00151356 0.00259327 0.000720369 0.00224133 0.000179683 0.00131349 0.00254395 0.00181863 0.00143162 0.000733008 0.00210042 0.000938116 0.00140844 0.00212946 0.000922304 0.000978364 0.000427941 0.00211336 0.00137906 0.0011656 0.00185417 0.00119997 0.000995688 0.000445617 0.00117953 0.0026207 0.000131982 0.000133059 0.00272345 2.55825e-05 2.55825e-05 0.00272454 0.00196916 0.00204889 0.000779909 0.000270721 0.00137391 0.000962686 0.000382706 0.00231086 0.0018315 0.000459237 0.00117099 0.000743388 0.00214109 0.00243682 0.000478412 0.00152469 0.00158412 0.00135379 0.00144692 0.000569154 0.00198038 7.28132e-05 0.00235625 0.00145605 0.000497151 0.00220881 0.000691313 0.00206633 0.0011814 0.00048803 0.00114011 0.00253799 0.00258588 0.00268355 0.00261883 0.0020864 0.00022041 0.00241327 0.00224268 0.000127267 0.00262334 0.00171508 0.000652 0.00251256 0.00192783 0.000171289 0.00129044 0.000163531 0.000163568 0.0020147 0.000284175 0.00019026 0.00267341 0.00188733 0.00075198 0.000646835 0.0018045 0.000335897 0.00149894 0.000427311 0.00192165 0.00236727 0.0024385 0.00214701 0.00129136 0.000968907 0.000931578 0.00245128 0.00203097 0.00104702 0.00143178 0.00264627 0.00215839 0.000558385 0.000289136 0.0016373 0.000319964 0.00138258 0.0017261 0.000619488 0.000761047 0.00111242 0.000888917 0.000578395 0.000332776 0.00253881 0.00157128 0.00161558 0.00047716 0.00114356 0.00201862 0.00249072 0.00191616 0.00135785 0.000225795 0.00023357 0.00207395 0.000459699 0.00174624 0.0026892 0.000225591 0.00123996 0.000934453 0.00110328 0.00214031 0.000790547 0.00233967 0.00178828 0.0023985 0.00227309 0.00231552 0.000522465 0.000887467 0.00232277 0.00220775 0.00122298 0.00209909 0.00219352 0.00169669 0.000209107 0.000375615 0.00101328 0.000626877 0.000934328 0.00156189 0.00235772 0.00156103 0.00130335 0.00243414 0.00132124 0.00254384 0.00207897 0.00193068 0.00166021 0.00239406 0.00241228 2.66736e-05 0.00272277 0.00267642 0.00167737 0.00163457 0.00154965 0.000737478 0.00134411 0.000639648 0.00106752 0.000460945 0.00158691 0.00143391 0.000170667 0.00114244 0.000497781 0.00177403 0.000691841 0.00146449 0.000253342 0.00226878 0.00228613 0.000219697 0.00249972 0.00252872 0.00192959 0.000736267 0.00116116 0.00129174 0.00210703 0.00151931 0.00246227 0.000783264 0.00219794 0.00146881 0.000207829 0.00124644 0.00250176 5.47655e-05 0.00251127 0.00116037 0.000739563 0.000464285 0.00160903 0.000774238 0.000359464 0.00204947 0.00256706 0.0020672 0.00193999 0.00209356 0.00046456 0.000425561 0.00170386 0.0017825 0.00162866 0.000774226 0.000287841 0.00166212 0.000339225 0.00181907 0.000334886 0.00109403 0.0016253 0.00231575 0.00175603 0.000699352 0.00205495 0.0011345 0.00102827 0.000780241 0.00255084 0.000580203 0.00107055 0.000829723 0.000817801 0.00166856 0.00219726 0.001558 0.00188428 0.00161084 0.000509242 0.00216588 0.00216398 0.000804738 0.00234142 0.00174465 0.00136986 0.00148484 0.00228998 0.00187373 0.00158251 0.00113664 0.00195866 0.00139283 0.000306019 0.000583623 0.00204739 0.00205748 0.00196591 0.000414785 0.0017079 0.000883496 0.00169345 0.000976241 0.00113961 0.000554687 0.000829953 0.00139827 0.00234655 0.000498168 0.00187213 0.00261365 0.00244836 0.00137786 0.000831048 0.000188927 0.000828483 0.00146896 0.00257511 0.00102641 0.0021749 0.00101613 0.000278503 0.000803715 0.000352995 0.000242811 6.09014e-05 6.09014e-05 0.00136129 0.00248368 0.000252107 0.00233466 0.0011479 0.00119678 0.0023512 0.0018061 0.0020169 0.00106264 0.000545238 0.0018433 0.00248666 0.00105294 0.000847056 0.000502773 0.000789784 0.000521867 0.000972196 0.00226384 0.000698984 0.0023534 0.000600869 0.00187726 0.00247905 0.000145135 0.000145108 0.00174886 0.0027275 2.24859e-05 0.00146469 0.00105363 0.000846673 0.00133147 0.00246596 0.00123926 0.000574906 0.000115837 0.000115837 0.000308212 0.000453719 0.000161091 0.00063339 0.00025464 0.0019937 0.000620729 0.00268768 0.00126502 0.000833269 0.00127127 9.38606e-05 0.00156489 0.00150142 0.00265832 0.00269542 0.000527284 0.00132634 0.0016878 0.00241107 0.00251701 0.00196537 0.00227572 0.000884705 0.000834818 0.00150794 0.00106282 0.00246366 0.000857283 0.00151371 0.00256949 0.00175542 0.00147686 0.00182592 0.00209134 0.00256479 0.000282692 0.00112115 0.000671829 0.00171183 0.00166021 0.00123086 0.00269317 5.6923e-05 0.000394765 0.00238858 0.000256417 0.00241974 0.00177002 0.00251756 0.00165285 0.00126914 0.0026522 0.0013296 0.00260574 0.00140757 0.00231418 0.00162712 0.00127356 0.00204091 0.000214688 0.000218214 0.00228388 0.00199741 0.00201469 0.00175381 0.00112083 0.00168803 0.00230852 0.0011028 0.000428034 0.00119721 0.000407514 0.00186933 0.000644858 0.000980943 0.00168167 0.0019075 0.000648399 0.00141916 0.00217091 0.0015403 0.00218113 0.00130323 0.00107309 0.00167811 0.00122613 0.00154264 0.000662104 0.00120077 0.000698857 0.00196789 0.00234792 0.00219631 0.00113355 0.000766756 0.000491753 0.00165196 0.00170691 0.00268834 0.00259202 0.00137251 5.33791e-05 5.33791e-05 0.000602741 0.00125394 0.00127928 0.00204343 0.00010921 5.89877e-05 5.91482e-05 0.00101548 9.69304e-05 0.00263747 0.0021717 0.00166098 0.000882196 0.00229056 5.52496e-05 0.00224615 0.0013332 0.00183587 0.00228503 0.00224753 0.00218761 0.00227892 0.00225825 0.000673649 0.00104843 0.000851361 0.00150832 0.00127341 0.00269327 0.000576356 0.000852487 0.00151754 0.000293936 0.00260763 0.00158559 0.00214396 0.00255933 0.00125032 0.00196285 0.00141266 0.00173071 0.00177704 0.0014921 0.00180258 0.00181499 0.00199519 0.000191972 0.000333383 0.00190183 0.000951614 0.000948403 0.00226229 0.000101997 0.000101504 0.00246074 0.00252491 0.000839492 0.00109143 0.000808568 0.000534255 0.00216389 0.00265188 9.77527e-05 0.00206486 0.00222835 0.00206023 0.00111835 0.000243748 0.00130183 0.0012455 0.000351667 0.00175704 0.0021989 0.00204123 0.00210875 0.00203794 0.00201466 0.000716677 0.000722495 2.34475e-05 0.00272625 0.000615257 0.00123592 0.000751984 0.00104995 0.000186819 0.00020692 0.00267425 0.00186136 0.00154032 0.00264345 0.00167777 0.0017677 0.00100369 0.000622106 0.00184804 0.00154289 0.00113857 0.000488469 0.00165142 0.0017488 0.000989315 0.00091069 0.000442627 0.00183361 0.0010919 0.000846073 0.00253079 0.000361383 0.00036773 0.00231205 0.00191738 0.000165573 0.000165887 0.00058767 0.00076581 0.000760803 0.00160541 0.00248431 0.00186088 0.000623982 0.000474508 0.00123744 0.00177296 8.17745e-05 0.000315712 0.00243214 0.000783351 0.000125012 0.000125012 0.000499088 0.00146147 0.00139011 0.00138739 0.00127051 0.00063764 0.000526459 0.00014931 0.00232301 0.000360243 0.0022864 0.000993106 0.000906894 0.00256068 0.00201284 0.00231097 0.000610696 0.00223539 0.00203818 0.00185549 0.000845374 0.00105514 0.00174261 0.00262514 0.00012455 0.00248138 0.00194923 0.00135162 0.0018373 0.00235198 0.00223179 0.00249397 0.00171335 0.00272775 2.19029e-05 0.00109718 0.00160412 0.000539741 0.000192711 0.00198433 0.00023382 0.000200288 0.00242261 0.00107611 0.00266053 0.00146861 0.00034067 0.00109934 0.000387238 0.00269919 0.0020372 0.00200462 0.000481277 0.00230023 0.00220709 0.00238393 0.000561573 0.00149113 0.00160664 0.000142405 0.000188796 0.00180604 0.00177057 0.00236447 0.000810324 0.00134769 0.000257145 0.00115772 0.00259912 0.000240291 0.00107327 0.00126127 0.000661584 0.00236124 0.0015484 0.000581556 0.00153859 0.000659505 0.00124137 0.00211538 0.00230804 0.00179704 0.00144933 0.000348692 0.000201333 0.000298174 0.000379139 0.00107376 0.00148402 0.00248733 0.000604957 0.000266186 0.000963763 0.00173406 0.000678465 0.000686336 0.00189085 0.00265234 9.8515e-05 0.00167421 0.000587818 0.00221341 0.000568878 0.00133287 0.00136176 0.000395684 0.00273151 1.85593e-05 1.84711e-05 0.00273132 0.0010016 0.00101942 0.00135971 0.00188834 0.00208852 0.000186602 0.00127699 0.000305638 0.000253327 0.00260176 0.00254159 0.00223542 0.00254221 0.000307894 0.000898129 0.000880352 0.00238617 0.00242819 0.0026975 5.39724e-05 0.00180559 0.000860249 0.00188747 0.00116075 0.000962584 0.00108935 0.00240552 0.00189352 0.000564645 0.00213608 0.00198935 0.00140862 0.00229227 0.00244735 0.00255408 0.000497306 0.0014094 0.00105687 0.00126848 0.000449419 0.000207244 0.000336894 0.00178038 0.00269355 0.000331218 0.00259652 0.0020725 0.00128677 0.00100272 0.00102035 0.00087951 0.000896583 0.000644022 0.00244165 0.00159416 0.00185546 0.000206739 0.00212321 0.0018166 0.00183913 0.00238717 0.00118655 0.000713563 0.000439228 0.000959003 0.00258822 0.0025648 0.00239705 0.00144382 0.00218561 0.00176834 0.00131433 0.00244704 0.00196549 0.00124277 0.00226895 0.000372472 0.000394606 0.000600426 0.0012227 0.00264179 0.000246958 0.00221031 0.00199823 0.000452439 0.00199425 0.00182275 0.00237169 0.00139417 0.00164862 0.000239811 0.000914087 0.000152314 0.00132654 0.00131604 0.000274478 0.00147228 0.00222549 0.00149882 0.00261738 0.00105115 0.00161125 0.00131472 0.00205185 0.000546553 0.00258325 0.000169376 0.000811679 0.00173294 0.00249291 0.00258777 0.000160403 0.000804834 0.00109384 0.00052986 0.00198924 0.00171454 0.000928928 0.00135544 0.00249241 0.00263732 0.00121392 0.000410359 0.00185761 0.00209701 0.00075851 0.00194099 0.00143372 0.00103377 0.00218771 0.000127232 0.000237184 0.00241256 0.00240805 0.00273293 1.70029e-05 0.00208479 0.00254594 0.00179068 0.0014568 0.000377861 0.002126 0.00258907 0.00223071 0.0019587 0.00016717 0.000812213 0.00255652 0.000437227 0.00123887 0.00139977 0.00264861 0.00193303 0.00263028 0.000291603 0.0015543 0.000859674 0.00265225 0.000537588 0.00214601 0.00258366 0.00100253 0.000144658 0.00241764 0.00201146 0.000866146 0.00109492 0.00185884 1.84728e-05 0.00273175 0.00163625 0.000991487 0.000989852 0.000914195 0.000661778 0.00198338 0.00172181 0.00240202 0.0015061 0.000327729 0.000524361 0.000999882 0.000847713 0.00131438 0.00194732 0.00208587 0.00209284 0.00181753 0.000275127 0.00250608 0.00143602 0.00150512 0.00148154 0.000846904 0.000902724 0.000314755 0.00164942 0.00172321 0.0022497 0.00194484 0.00185247 0.00167891 0.00109505 0.00140766 0.00226663 0.002466 0.00245894 0.00122988 0.000393265 0.0016134 0.00225233 0.000562808 0.00233624 0.000754179 0.00128468 0.00133833 0.000472888 0.000470283 0.00219803 0.00222139 0.000405716 0.00137189 0.00270044 0.00214173 0.00166657 0.000671956 0.000356622 0.0013517 0.0022103 0.000120947 0.00258601 0.0010432 0.00238 0.000317401 0.00237489 0.000376624 0.00183966 0.00234475 0.00135982 0.000536369 0.0017698 0.00223969 0.000383996 0.00142752 0.00145344 0.00272829 1.86174e-05 0.00251468 0.000814004 0.000815249 0.000597441 0.00183245 0.00241446 0.00160913 0.00269893 0.00152329 0.00157919 0.000653335 0.000995265 0.00246898 0.00101343 0.000886575 0.000463925 0.00168667 0.00223625 0.00185391 0.00209023 0.00241348 0.00194399 0.00119737 0.000422786 0.000766503 0.00226159 0.00200356 0.00159012 9.30222e-05 9.30222e-05 0.00192168 0.00158669 0.000282269 0.00158453 0.00133149 0.00230072 0.000127969 0.000132203 0.00262847 0.000786908 0.00202716 0.00188259 0.000526139 0.00203434 0.00118407 0.00197178 0.00209053 0.00233381 0.000885687 0.00101431 0.00233637 0.000528543 0.0023044 0.000232727 0.00265814 0.00231476 0.00147982 0.0026226 0.00151796 0.000314524 0.00181823 0.000877844 9.78222e-05 9.78218e-05 0.0015834 0.00265831 0.000115767 0.00040721 0.000542463 5.74181e-05 4.94006e-05 0.00165041 0.00133774 0.00163856 0.00105424 0.00110812 0.00137428 7.07467e-05 0.0025134 0.00157513 0.00255663 0.00209516 0.0023898 0.00252626 0.0016157 0.00104101 0.00174941 0.00269237 0.00148245 0.000337437 0.00154383 0.000678675 0.0022733 0.000544763 0.00142594 0.00248169 0.00217023 0.00206178 0.000855692 0.00130796 0.000932178 0.00203738 0.00115777 0.000464174 0.00118589 0.00043856 0.000761548 0.0019944 0.000524438 0.00197527 0.00087364 0.0025214 0.000807491 0.0027067 0.00144916 0.00192337 0.00113773 0.00192567 0.000924468 0.00134075 0.00121728 0.00206582 0.00152144 0.000591553 0.000510938 0.000103298 0.00262088 0.00261239 0.00108813 0.00063876 5.95476e-05 0.00013911 0.000813189 0.0010398 0.00102513 0.00178709 0.0022006 0.0020067 0.00246951 0.00258682 0.00107904 0.00174251 0.0013895 0.00266064 0.000360475 2.05796e-05 2.05796e-05 0.00272987 0.00272964 0.00154085 0.000908088 0.00124344 0.00214113 0.0019083 0.00203437 0.00254886 0.00174956 0.00194201 0.00148793 0.000714106 0.00241645 0.00105228 0.00158205 0.00172948 0.00195138 0.00126628 0.00136428 0.00148004 0.000681113 0.00141176 0.0016585 0.00252145 0.00235108 0.000291787 0.00200053 0.00176608 0.00142227 0.00185474 0.00242719 0.00148504 0.00235121 0.000567964 0.00227179 0.00190918 0.00196406 0.000105037 0.000743669 4.48178e-05 4.48178e-05 0.00108306 0.000785214 0.0026456 0.0025038 0.000926493 0.00216372 0.00161221 0.000736189 0.000489341 0.00136451 0.00216332 0.00162373 0.00188768 0.00212357 0.000962646 0.000939886 0.000960342 0.00221529 0.00202761 0.000558146 0.00152804 0.00200445 0.000611795 0.0010177 0.00127325 0.000520116 0.00169878 0.00218617 0.00270425 0.00205734 0.00243581 0.00101157 0.00246981 0.00162236 0.00139865 0.000187998 0.00267396 0.00164149 0.000606955 0.00256643 0.000368243 0.00153244 0.000448105 0.000296866 0.00155499 0.00215298 0.000509634 0.00118325 0.000716696 0.000673632 0.000512445 0.000743276 0.000606283 0.0016404 0.000784548 0.000560822 0.000202811 0.00243786 0.00233619 0.00151958 0.000645036 0.000550004 0.00082254 0.00130879 0.000271164 0.00121908 0.00273507 1.4985e-05 0.00144941 0.000383036 0.000503951 0.00029556 0.00126145 0.000904243 0.00155708 0.00089138 0.00200698 0.00194533 0.000699027 0.000625574 0.00127435 0.00182503 0.00201536 0.000213054 0.00211941 0.000902133 0.00173154 0.000821898 0.00073333 0.00116647 0.000458669 0.00188097 0.00251414 0.00261015 0.000762249 0.000845653 0.00105408 0.000504895 0.000237423 0.00168208 0.00261136 0.00174577 0.00224598 0.00263537 0.000698348 0.0012014 0.000557372 0.00261134 0.00250503 0.00219591 0.00169527 0.00218198 0.00232653 0.00164534 0.00207129 0.00251015 0.00245322 0.00106932 0.000830667 0.00128628 0.00097151 0.000630569 0.00117768 0.000382998 0.00171256 0.00162418 0.00077903 0.00160869 0.000561879 0.000271823 0.000143542 0.000715552 0.00120954 0.00126877 0.000845024 0.00105517 0.00237486 0.00107873 0.00125018 0.00208256 0.00229522 0.00252972 0.00111418 0.00207244 0.0023112 0.000564221 0.000194198 0.00162869 0.000162728 0.00175856 0.00237442 0.000889628 0.00205852 0.000650101 0.00140379 0.000941352 0.00190868 0.00167338 0.00264133 0.000671885 0.00237147 0.000267497 0.00106984 0.000105936 0.000105865 0.00163973 0.000266926 0.00226933 0.00172824 0.00066367 0.00184338 0.00194487 0.00247244 0.000543394 0.00202706 0.000602015 0.000269148 0.00153713 1.72254e-05 0.00273281 0.00144519 0.00242605 0.00119399 0.00247057 0.000254727 0.00128778 0.0019085 0.0011126 0.000787619 0.000512715 0.00111287 0.00111635 0.000554425 0.00153689 0.00269012 0.00213088 0.00191696 0.00247274 0.0017091 0.000660381 0.00265069 0.00248821 0.000638103 0.000332799 0.000391293 0.00150187 0